# vtk DataFile Version 3.0
vtk output
ASCII
DATASET POLYDATA
POINTS 261 float
104.94 178.105 78.6047
104.658 177.726 78.3644
104.371 177.344 78.1343
104.065 176.957 77.9349
103.757 176.564 77.749
103.448 176.169 77.5689
103.144 175.762 77.4023
102.852 175.345 77.2446
102.568 174.921 77.0903
102.313 174.477 76.9414
102.07 174.026 76.7927
101.863 173.561 76.6384
101.67 173.09 76.4809
101.513 172.608 76.3189
101.379 172.117 76.1604
101.256 171.622 76.0046
101.164 171.116 75.8627
101.081 170.606 75.7283
101.024 170.087 75.6141
100.973 169.566 75.5063
100.944 169.041 75.4112
100.933 168.512 75.3187
100.939 167.984 75.2288
100.955 167.454 75.1398
100.995 166.925 75.0542
101.043 166.395 74.9692
101.109 165.866 74.887
101.184 165.338 74.8066
101.274 164.809 74.7331
101.367 164.281 74.6624
101.467 163.753 74.5999
101.57 163.224 74.5393
101.682 162.697 74.4857
101.798 162.17 74.4337
101.926 161.645 74.3861
102.056 161.119 74.3398
102.2 160.596 74.2975
102.353 160.076 74.2597
102.54 159.566 74.237
102.742 159.058 74.2204
102.973 158.566 74.2163
103.24 158.091 74.2255
103.528 157.629 74.2457
103.833 157.18 74.2785
104.149 156.737 74.3177
104.491 156.319 74.3734
104.843 155.907 74.4292
105.199 155.501 74.4848
105.573 155.109 74.539
105.96 154.729 74.592
106.354 154.356 74.6447
106.763 154.002 74.7011
107.179 153.656 74.7588
107.605 153.324 74.8194
108.046 153.013 74.885
108.493 152.714 74.954
108.944 152.42 75.0232
109.401 152.14 75.0949
109.861 151.865 75.1679
110.325 151.6 75.2428
110.792 151.338 75.3172
111.265 151.091 75.3896
111.74 150.848 75.4625
112.219 150.613 75.5357
112.707 150.399 75.6062
113.198 150.194 75.6748
113.702 150.017 75.7338
114.212 149.86 75.7839
114.73 149.719 75.8225
115.248 149.587 75.8549
115.774 149.48 75.8671
116.301 149.382 75.871
116.832 149.312 75.8525
117.364 149.255 75.8269
117.897 149.239 75.7802
118.427 149.239 75.7271
118.951 149.293 75.6566
119.469 149.377 75.578
119.98 149.487 75.4924
120.486 149.609 75.4044
120.982 149.757 75.3099
121.476 149.912 75.2133
121.966 150.074 75.1143
122.45 150.249 75.0135
122.932 150.428 74.9111
123.412 150.61 74.8083
123.885 150.806 74.7019
124.356 151.005 74.5942
124.821 151.214 74.4822
125.28 151.433 74.3646
125.729 151.663 74.2395
126.176 151.898 74.1117
126.615 152.139 73.9768
127.038 152.403 73.8326
127.455 152.674 73.6851
127.86 152.955 73.5306
128.255 153.249 73.3696
128.634 153.558 73.2037
129.005 153.877 73.0394
129.371 154.203 72.8762
129.723 154.545 72.7187
130.068 154.899 72.5682
130.408 155.259 72.4216
130.73 155.641 72.2896
131.045 156.032 72.1645
131.335 156.443 72.0437
131.62 156.858 71.9202
131.888 157.284 71.8018
132.13 157.732 71.7009
132.365 158.186 71.6082
132.584 158.653 71.5333
132.783 159.133 71.4746
132.959 159.624 71.4406
133.129 160.121 71.4208
133.295 160.619 71.4084
133.443 161.123 71.4073
133.587 161.63 71.4102
133.708 162.142 71.4147
133.823 162.656 71.4197
133.918 163.175 71.4318
134.006 163.694 71.4473
134.071 164.219 71.476
134.128 164.742 71.5098
134.167 165.268 71.5637
134.201 165.794 71.6247
134.231 166.318 71.7021
134.255 166.84 71.7957
134.271 167.36 71.9057
134.282 167.88 72.021
134.283 168.395 72.1513
134.279 168.91 72.2875
134.262 169.42 72.442
134.241 169.927 72.6033
134.212 170.429 72.78
134.177 170.923 72.9748
134.133 171.407 73.1946
134.088 171.886 73.4227
134.033 172.354 73.6718
133.975 172.819 73.9274
133.906 173.274 74.194
133.821 173.725 74.4671
133.73 174.172 74.7424
133.63 174.617 75.0196
133.522 175.059 75.2971
133.406 175.498 75.5788
133.288 175.933 75.8622
133.168 176.367 76.1473
133.038 176.796 76.4342
132.904 177.224 76.7219
132.764 177.651 77.0086
132.609 178.076 77.2892
132.447 178.503 77.5664
132.21 178.923 77.7957
99.7352 67.3112 80.8076
99.7429 67.6224 80.3739
99.7906 67.9314 79.9406
99.974 68.2533 79.5364
100.2 68.5867 79.164
100.495 68.9342 78.8443
100.83 69.2913 78.575
101.174 69.6551 78.3279
101.52 70.0219 78.0883
101.866 70.398 77.865
102.212 70.7773 77.6452
102.552 71.1633 77.4316
102.885 71.5607 77.2284
103.217 71.9611 77.0307
103.547 72.3677 76.8446
103.878 72.7788 76.6735
104.213 73.1894 76.512
104.551 73.5976 76.3593
104.892 74.0039 76.2111
105.238 74.4099 76.0773
105.58 74.8191 75.9538
105.923 75.2297 75.8365
106.261 75.645 75.7368
106.598 76.0647 75.6508
106.935 76.4838 75.5717
107.271 76.9037 75.5118
107.611 77.3185 75.4558
107.961 77.7227 75.4068
108.333 78.1033 75.3633
108.71 78.4753 75.3208
109.1 78.8303 75.2799
109.506 79.1629 75.2414
109.913 79.4903 75.2063
110.326 79.8099 75.1777
110.745 80.1186 75.1566
111.165 80.4231 75.1371
111.591 80.7156 75.1222
112.021 81.0002 75.1085
112.453 81.2805 75.0956
112.89 81.5514 75.0831
113.328 81.8181 75.0705
113.77 82.0763 75.0536
114.214 82.3299 75.0342
114.664 82.571 75.0062
115.117 82.8045 74.9763
115.58 83.0145 74.9412
116.051 83.2052 74.9037
116.525 83.3845 74.8663
117.009 83.5323 74.8305
117.497 83.6687 74.7959
117.993 83.7725 74.7685
118.491 83.8646 74.7433
118.995 83.9253 74.7264
119.501 83.974 74.713
120.01 83.9899 74.7105
120.52 83.9938 74.7121
121.031 83.9637 74.7252
121.541 83.9197 74.7426
122.052 83.8619 74.7637
122.558 83.7616 74.7981
123.062 83.6456 74.8366
123.561 83.4996 74.8812
124.054 83.325 74.9286
124.533 83.1071 74.9806
125.008 82.8743 75.0337
125.47 82.6068 75.0831
125.929 82.3308 75.129
126.381 82.0361 75.1648
126.829 81.7317 75.1948
127.276 81.4232 75.2224
127.716 81.1032 75.2503
128.155 80.7796 75.2796
128.585 80.4431 75.3151
129.012 80.1021 75.3533
129.43 79.7477 75.398
129.841 79.3861 75.4462
130.25 79.0213 75.4969
130.655 78.6517 75.5523
131.056 78.2787 75.6163
131.451 77.9029 75.6974
131.843 77.5259 75.7856
132.231 77.1483 75.8888
132.611 76.7696 76.0091
132.99 76.3904 76.134
133.365 76.0106 76.2707
133.736 75.6301 76.4144
134.105 75.2501 76.5622
134.473 74.8704 76.7164
134.836 74.4917 76.8832
135.197 74.1145 77.0553
135.554 73.7388 77.2374
135.907 73.364 77.4308
136.252 72.9918 77.6377
136.594 72.6232 77.857
136.933 72.2672 78.0964
137.273 71.916 78.3427
137.613 71.5758 78.6024
137.953 71.2482 78.8744
138.294 70.9306 79.1568
138.635 70.6198 79.4456
138.973 70.3161 79.745
139.311 70.0144 80.0483
139.642 69.716 80.3604
139.951 69.4192 80.6951
140.249 69.1247 81.0415
140.507 68.8341 81.4197
140.645 68.5543 81.8535
140.689 68.2916 82.3129
 

LINES 2 263
153 0 1 2 3 4 5 6 7 8 9 10 11 12 13 14 15 16 17 18 19 20 21 22 23 24 25 26 27 28 29 30 31 32 33 34 35 36 37 38 39 40 41 42 43 44 45 46 47 48 49 50 51 52 53 54 55 56 57 58 59 60 61 62 63 64 65 66 67 68 69 70 71 72 73 74 75 76 77 78 79 80 81 82 83 84 85 86 87 88 89 90 91 92 93 94 95 96 97 98 99 100 101 102 103 104 105 106 107 108 109 110 111 112 113 114 115 116 117 118 119 120 121 122 123 124 125 126 127 128 129 130 131 132 133 134 135 136 137 138 139 140 141 142 143 144 145 146 147 148 149 150 151 152 
108 153 154 155 156 157 158 159 160 161 162 163 164 165 166 167 168 169 170 171 172 173 174 175 176 177 178 179 180 181 182 183 184 185 186 187 188 189 190 191 192 193 194 195 196 197 198 199 200 201 202 203 204 205 206 207 208 209 210 211 212 213 214 215 216 217 218 219 220 221 222 223 224 225 226 227 228 229 230 231 232 233 234 235 236 237 238 239 240 241 242 243 244 245 246 247 248 249 250 251 252 253 254 255 256 257 258 259 260 

POINT_DATA 261
TENSORS tensors float
0.000907959 -0.000198995 2.51783e-05 -0.000198995 0.000935765 0.000111067 2.51783e-05 0.000111067 0.00102112 
0.00091358 -0.000208126 2.29464e-05 -0.000208126 0.000944785 0.000129621 2.29464e-05 0.000129621 0.00101065 
0.000916016 -0.000223561 2.49143e-05 -0.000223561 0.000947587 0.000140023 2.49143e-05 0.000140023 0.000992981 
0.000917139 -0.00024169 2.48753e-05 -0.00024169 0.000949742 0.000149315 2.48753e-05 0.000149315 0.000972663 
0.000915888 -0.000248294 2.05137e-05 -0.000248294 0.000960594 0.000154434 2.05137e-05 0.000154434 0.000947008 
0.000912288 -0.000255457 1.54211e-05 -0.000255457 0.000977578 0.000158269 1.54211e-05 0.000158269 0.000920238 
0.000907552 -0.000264975 1.07347e-05 -0.000264975 0.00100196 0.000165692 1.07347e-05 0.000165692 0.000896082 
0.00090275 -0.00027056 1.41002e-05 -0.00027056 0.00103906 0.000171964 1.41002e-05 0.000171964 0.000877853 
0.000898989 -0.000274644 2.25123e-05 -0.000274644 0.0010855 0.000182825 2.25123e-05 0.000182825 0.000861885 
0.000894263 -0.000277232 3.46819e-05 -0.000277232 0.00113807 0.000198799 3.46819e-05 0.000198799 0.000847095 
0.000886154 -0.000276066 4.77776e-05 -0.000276066 0.00119397 0.000218497 4.77776e-05 0.000218497 0.000829796 
0.00087354 -0.0002732 6.27482e-05 -0.0002732 0.00124289 0.00024239 6.27482e-05 0.00024239 0.000817997 
0.00084625 -0.000252334 6.38353e-05 -0.000252334 0.00126457 0.000254778 6.38353e-05 0.000254778 0.000788514 
0.000818651 -0.00023159 5.93112e-05 -0.00023159 0.00129467 0.000263388 5.93112e-05 0.000263388 0.000757109 
0.000789747 -0.000208856 5.27349e-05 -0.000208856 0.00133206 0.000265528 5.27349e-05 0.000265528 0.000722365 
0.000760078 -0.000187174 4.45582e-05 -0.000187174 0.00137319 0.000266384 4.45582e-05 0.000266384 0.000686443 
0.000733153 -0.000162623 4.32213e-05 -0.000162623 0.00141164 0.000254396 4.32213e-05 0.000254396 0.000651656 
0.000708737 -0.000139122 4.80643e-05 -0.000139122 0.00144763 0.000235081 4.80643e-05 0.000235081 0.000617947 
0.000685344 -0.000118404 5.56987e-05 -0.000118404 0.00148169 0.000216425 5.56987e-05 0.000216425 0.000588604 
0.000662343 -0.000100304 6.46058e-05 -0.000100304 0.00151453 0.000198404 6.46058e-05 0.000198404 0.000562477 
0.000649428 -7.79142e-05 7.24515e-05 -7.79142e-05 0.00153271 0.000183796 7.24515e-05 0.000183796 0.000556117 
0.000648969 -4.95e-05 7.90217e-05 -4.95e-05 0.00153788 0.000172837 7.90217e-05 0.000172837 0.000570803 
0.000650881 -2.06019e-05 8.6919e-05 -2.06019e-05 0.00154602 0.000162291 8.6919e-05 0.000162291 0.000588415 
0.000654344 8.65384e-06 9.57099e-05 8.65384e-06 0.00155685 0.000152129 9.57099e-05 0.000152129 0.000608 
0.000660335 3.482e-05 9.54079e-05 3.482e-05 0.0015581 0.000142471 9.54079e-05 0.000142471 0.000623857 
0.000669955 5.63276e-05 8.44799e-05 5.63276e-05 0.00154688 0.000134953 8.44799e-05 0.000134953 0.000634361 
0.000677343 7.86592e-05 7.39232e-05 7.86592e-05 0.00153637 0.000126245 7.39232e-05 0.000126245 0.000645177 
0.000682725 0.000101115 6.38599e-05 0.000101115 0.00152688 0.000116656 6.38599e-05 0.000116656 0.000655627 
0.000686104 0.000117074 5.3104e-05 0.000117074 0.00151383 0.000106285 5.3104e-05 0.000106285 0.000654293 
0.000689534 0.000120689 4.11427e-05 0.000120689 0.00149095 9.68766e-05 4.11427e-05 9.68766e-05 0.000632316 
0.000692153 0.000125879 2.94896e-05 0.000125879 0.00146848 8.8687e-05 2.94896e-05 8.8687e-05 0.000609537 
0.000694081 0.000132214 1.82545e-05 0.000132214 0.00144688 8.17463e-05 1.82545e-05 8.17463e-05 0.000586352 
0.000701067 0.000139934 7.56426e-06 0.000139934 0.00143212 7.60745e-05 7.56426e-06 7.60745e-05 0.000566777 
0.000722009 0.00014595 -2.49994e-06 0.00014595 0.00143193 7.22779e-05 -2.49994e-06 7.22779e-05 0.000558099 
0.000745538 0.000152528 -1.19485e-05 0.000152528 0.00143256 6.97784e-05 -1.19485e-05 6.97784e-05 0.000548377 
0.000771449 0.000158817 -2.02834e-05 0.000158817 0.00143424 6.78925e-05 -2.02834e-05 6.78925e-05 0.000539541 
0.000801666 0.000166081 -2.85936e-05 0.000166081 0.00143299 6.56973e-05 -2.85936e-05 6.56973e-05 0.000535181 
0.000838907 0.000179085 -4.4498e-05 0.000179085 0.00141697 5.19004e-05 -4.4498e-05 5.19004e-05 0.000558882 
0.000876188 0.000195117 -6.01327e-05 0.000195117 0.00139803 3.85302e-05 -6.01327e-05 3.85302e-05 0.000575444 
0.000915457 0.000215172 -7.68931e-05 0.000215172 0.00137896 2.46786e-05 -7.68931e-05 2.46786e-05 0.000588388 
0.000954089 0.000237038 -9.33369e-05 0.000237038 0.00135556 1.34342e-05 -9.33369e-05 1.34342e-05 0.000590139 
0.000987002 0.000246299 -9.75474e-05 0.000246299 0.0013414 7.66229e-06 -9.75474e-05 7.66229e-06 0.000637465 
0.00100719 0.000254749 -0.000102176 0.000254749 0.00131462 -3.15523e-06 -0.000102176 -3.15523e-06 0.000676106 
0.00100994 0.000262673 -0.000106944 0.000262673 0.00127355 -1.66869e-05 -0.000106944 -1.66869e-05 0.000689017 
0.0010044 0.000272316 -0.000114091 0.000272316 0.00122215 -3.13212e-05 -0.000114091 -3.13212e-05 0.000670842 
0.00100845 0.000282111 -0.000120025 0.000282111 0.0011813 -4.51298e-05 -0.000120025 -4.51298e-05 0.000642713 
0.00110007 0.000283336 -0.000107634 0.000283336 0.00124083 -4.91223e-05 -0.000107634 -4.91223e-05 0.000736479 
0.00119028 0.000294479 -9.75095e-05 0.000294479 0.00129621 -5.93827e-05 -9.75095e-05 -5.93827e-05 0.000800119 
0.00127486 0.00031399 -8.74929e-05 0.00031399 0.00134554 -7.31785e-05 -8.74929e-05 -7.31785e-05 0.00083748 
0.0013219 0.000337855 -7.69519e-05 0.000337855 0.00134432 -9.20946e-05 -7.69519e-05 -9.20946e-05 0.000821604 
0.00133597 0.000369112 -7.07418e-05 0.000369112 0.00129674 -0.000117503 -7.07418e-05 -0.000117503 0.000740364 
0.00133215 0.000404615 -8.01191e-05 0.000404615 0.00124147 -0.000141975 -8.01191e-05 -0.000141975 0.00065244 
0.00137096 0.000419612 -9.6771e-05 0.000419612 0.00121578 -0.000134708 -9.6771e-05 -0.000134708 0.000682201 
0.00139159 0.000441895 -0.000113168 0.000441895 0.00116306 -0.00013477 -0.000113168 -0.00013477 0.000667548 
0.0013889 0.00046551 -0.000132903 0.00046551 0.00109215 -0.000132858 -0.000132903 -0.000132858 0.000634888 
0.00135757 0.000488741 -0.000153639 0.000488741 0.000993844 -0.000126375 -0.000153639 -0.000126375 0.000577887 
0.00129817 0.000517639 -0.000172321 0.000517639 0.000859733 -0.000122425 -0.000172321 -0.000122425 0.00047138 
0.00134006 0.000544027 -0.000189881 0.000544027 0.000830135 -0.000115623 -0.000189881 -0.000115623 0.000482059 
0.00138972 0.000564434 -0.000205592 0.000564434 0.00081878 -0.00011041 -0.000205592 -0.00011041 0.000514907 
0.00143061 0.000581664 -0.000216132 0.000581664 0.000797012 -0.000107434 -0.000216132 -0.000107434 0.000526927 
0.00146883 0.000597056 -0.000223484 0.000597056 0.000760857 -0.00010639 -0.000223484 -0.00010639 0.000518556 
0.00150772 0.000611954 -0.000229364 0.000611954 0.000707617 -0.000106815 -0.000229364 -0.000106815 0.000490173 
0.00152964 0.000600858 -0.000234232 0.000600858 0.000682966 -0.000101007 -0.000234232 -0.000101007 0.000496389 
0.00155075 0.000591784 -0.000240588 0.000591784 0.000625824 -9.94811e-05 -0.000240588 -9.94811e-05 0.000477038 
0.00158487 0.000568167 -0.00023388 0.000568167 0.000574157 -9.90595e-05 -0.00023388 -9.90595e-05 0.000457281 
0.00162098 0.000541289 -0.000227018 0.000541289 0.00049905 -9.87008e-05 -0.000227018 -9.87008e-05 0.000420054 
0.0016857 0.00050147 -0.000210461 0.00050147 0.000437606 -9.63051e-05 -0.000210461 -9.63051e-05 0.000394922 
0.00176144 0.000458639 -0.000188803 0.000458639 0.000408948 -9.01474e-05 -0.000188803 -9.01474e-05 0.000389706 
0.00181856 0.000412896 -0.000155889 0.000412896 0.000388631 -8.42122e-05 -0.000155889 -8.42122e-05 0.000394295 
0.00186414 0.000364488 -0.000116416 0.000364488 0.000375693 -8.00598e-05 -0.000116416 -8.00598e-05 0.000407809 
0.00190315 0.000311926 -7.21119e-05 0.000311926 0.000370984 -7.84083e-05 -7.21119e-05 -7.84083e-05 0.000431579 
0.00193536 0.000256251 -2.30167e-05 0.000256251 0.000378441 -7.90586e-05 -2.30167e-05 -7.90586e-05 0.000467837 
0.00193219 0.000188985 1.95649e-05 0.000188985 0.000386996 -7.63586e-05 1.95649e-05 -7.63586e-05 0.000494709 
0.00188897 0.000111292 5.61283e-05 0.000111292 0.000398766 -6.95867e-05 5.61283e-05 -6.95867e-05 0.000511049 
0.00182834 2.75704e-05 8.76594e-05 2.75704e-05 0.000415533 -5.92386e-05 8.76594e-05 -5.92386e-05 0.000522742 
0.00174615 -6.15314e-05 0.000113667 -6.15314e-05 0.000439528 -4.46635e-05 0.000113667 -4.46635e-05 0.000528633 
0.00168354 -0.000143554 0.000137466 -0.000143554 0.000457837 -3.5258e-05 0.000137466 -3.5258e-05 0.00052955 
0.00164247 -0.000215989 0.000158245 -0.000215989 0.000473328 -3.23819e-05 0.000158245 -3.23819e-05 0.000525313 
0.00161467 -0.000277919 0.000178555 -0.000277919 0.000500701 -3.05281e-05 0.000178555 -3.05281e-05 0.000522271 
0.00159328 -0.000329352 0.000194456 -0.000329352 0.000515225 -3.6265e-05 0.000194456 -3.6265e-05 0.000508692 
0.0015809 -0.0003756 0.000211621 -0.0003756 0.000534697 -4.60203e-05 0.000211621 -4.60203e-05 0.000498461 
0.00158283 -0.000412803 0.000227474 -0.000412803 0.00055868 -6.28574e-05 0.000227474 -6.28574e-05 0.000489132 
0.00157438 -0.000435525 0.000229965 -0.000435525 0.000573626 -8.07491e-05 0.000229965 -8.07491e-05 0.000478011 
0.00157877 -0.00044764 0.000230001 -0.00044764 0.000590854 -0.000104392 0.000230001 -0.000104392 0.00046752 
0.00156836 -0.00045548 0.000229596 -0.00045548 0.000601503 -0.000125027 0.000229596 -0.000125027 0.000453161 
0.00153788 -0.000466986 0.000230256 -0.000466986 0.000618457 -0.000138628 0.000230256 -0.000138628 0.000441483 
0.00149971 -0.000472922 0.000231678 -0.000472922 0.000629546 -0.000150542 0.000231678 -0.000150542 0.000428789 
0.0014653 -0.000486805 0.000239656 -0.000486805 0.00064882 -0.000160023 0.000239656 -0.000160023 0.000422297 
0.00144035 -0.000503645 0.000254452 -0.000503645 0.000666839 -0.000169802 0.000254452 -0.000169802 0.000417944 
0.00141547 -0.000516255 0.000266774 -0.000516255 0.000687257 -0.000179616 0.000266774 -0.000179616 0.000416969 
0.00138895 -0.000528098 0.000280182 -0.000528098 0.000709115 -0.000193249 0.000280182 -0.000193249 0.000417969 
0.00136837 -0.000544286 0.000299258 -0.000544286 0.000726371 -0.000212279 0.000299258 -0.000212279 0.000415623 
0.00130165 -0.000541042 0.000297409 -0.000541042 0.000766062 -0.000221692 0.000297409 -0.000221692 0.000436018 
0.00123134 -0.000535897 0.000297896 -0.000535897 0.000794743 -0.000231365 0.000297896 -0.000231365 0.000452208 
0.00116207 -0.000519121 0.000295379 -0.000519121 0.000818157 -0.000234127 0.000295379 -0.000234127 0.000473074 
0.00109622 -0.000506724 0.000295299 -0.000506724 0.000837524 -0.000238814 0.000295299 -0.000238814 0.000487641 
0.00102814 -0.000485662 0.000283865 -0.000485662 0.00084363 -0.000231232 0.000283865 -0.000231232 0.000509356 
0.000973704 -0.000451459 0.000252922 -0.000451459 0.000857528 -0.000211157 0.000252922 -0.000211157 0.000540221 
0.000931481 -0.000431218 0.000226363 -0.000431218 0.00087108 -0.000202668 0.000226363 -0.000202668 0.000558026 
0.000897152 -0.000402351 0.000198278 -0.000402351 0.000885679 -0.000183942 0.000198278 -0.000183942 0.000589328 
0.000866939 -0.00036355 0.000171677 -0.00036355 0.000902192 -0.000155093 0.000171677 -0.000155093 0.000615934 
0.000839047 -0.000334213 0.000150048 -0.000334213 0.000914637 -0.000134613 0.000150048 -0.000134613 0.000627549 
0.000815808 -0.000308764 0.000131296 -0.000308764 0.000929195 -0.000115752 0.000131296 -0.000115752 0.000639345 
0.000798191 -0.000282523 0.000113563 -0.000282523 0.000954556 -0.000102009 0.000113563 -0.000102009 0.000639767 
0.0007842 -0.000264147 0.000101292 -0.000264147 0.000980356 -0.000104395 0.000101292 -0.000104395 0.000627785 
0.000785129 -0.000252406 9.66396e-05 -0.000252406 0.00100377 -0.000120617 9.66396e-05 -0.000120617 0.000627114 
0.000771246 -0.000228352 8.21622e-05 -0.000228352 0.00101241 -0.000114597 8.21622e-05 -0.000114597 0.000633047 
0.000762062 -0.000211417 6.73381e-05 -0.000211417 0.0010302 -0.00010805 6.73381e-05 -0.00010805 0.000634834 
0.000758373 -0.000204109 5.05677e-05 -0.000204109 0.00105995 -9.99392e-05 5.05677e-05 -9.99392e-05 0.000630717 
0.00075316 -0.000203748 3.48973e-05 -0.000203748 0.00110315 -9.36214e-05 3.48973e-05 -9.36214e-05 0.000612644 
0.000736306 -0.000204752 2.22069e-05 -0.000204752 0.00115231 -8.63979e-05 2.22069e-05 -8.63979e-05 0.000585927 
0.00071299 -0.000209409 9.11351e-06 -0.000209409 0.00120429 -7.49386e-05 9.11351e-06 -7.49386e-05 0.00055576 
0.000684598 -0.000220342 -1.64884e-06 -0.000220342 0.0012518 -6.03506e-05 -1.64884e-06 -6.03506e-05 0.000525363 
0.000653916 -0.000237156 -1.29902e-05 -0.000237156 0.00129748 -4.31783e-05 -1.29902e-05 -4.31783e-05 0.000493071 
0.000635331 -0.00023086 -2.55162e-05 -0.00023086 0.00133456 -3.34392e-05 -2.55162e-05 -3.34392e-05 0.000470715 
0.000618012 -0.000225962 -3.77806e-05 -0.000225962 0.0013672 -2.36665e-05 -3.77806e-05 -2.36665e-05 0.000456148 
0.000615132 -0.00020322 -4.90442e-05 -0.00020322 0.0013881 -2.2859e-05 -4.90442e-05 -2.2859e-05 0.000467666 
0.000617796 -0.000177799 -5.76873e-05 -0.000177799 0.00139863 -2.28734e-05 -5.76873e-05 -2.28734e-05 0.000490399 
0.000624186 -0.000152173 -6.27582e-05 -0.000152173 0.00139648 -1.39938e-05 -6.27582e-05 -1.39938e-05 0.000510971 
0.000633275 -0.000126771 -6.68018e-05 -0.000126771 0.00139252 -3.34564e-06 -6.68018e-05 -3.34564e-06 0.000531112 
0.000647522 -9.94078e-05 -6.98968e-05 -9.94078e-05 0.00138696 1.19192e-05 -6.98968e-05 1.19192e-05 0.00055055 
0.000664709 -7.11907e-05 -7.33672e-05 -7.11907e-05 0.00138185 2.87957e-05 -7.33672e-05 2.87957e-05 0.000570929 
0.000683816 -5.04926e-05 -7.82751e-05 -5.04926e-05 0.00137848 4.92765e-05 -7.82751e-05 4.92765e-05 0.000590257 
0.000703935 -3.20056e-05 -8.43362e-05 -3.20056e-05 0.00137473 7.09023e-05 -8.43362e-05 7.09023e-05 0.000610745 
0.000725836 -2.0473e-05 -9.17647e-05 -2.0473e-05 0.00136945 9.49705e-05 -9.17647e-05 9.49705e-05 0.000629185 
0.000749279 -9.97027e-06 -0.000100095 -9.97027e-06 0.00136183 0.000117051 -0.000100095 0.000117051 0.000646552 
0.000763647 9.18823e-09 -0.000100745 9.18823e-09 0.00134883 0.000131704 -0.000100745 0.000131704 0.000657341 
0.000776462 1.03114e-05 -9.86973e-05 1.03114e-05 0.00133241 0.000145073 -9.86973e-05 0.000145073 0.000666858 
0.000783579 1.94122e-05 -9.16121e-05 1.94122e-05 0.00131206 0.000156579 -9.16121e-05 0.000156579 0.000670204 
0.000791915 2.75376e-05 -8.2494e-05 2.75376e-05 0.00128744 0.00016949 -8.2494e-05 0.00016949 0.000672374 
0.000805582 3.57266e-05 -7.46386e-05 3.57266e-05 0.00126488 0.000179176 -7.46386e-05 0.000179176 0.000685031 
0.00082144 4.29653e-05 -6.64433e-05 4.29653e-05 0.00124217 0.000190574 -6.64433e-05 0.000190574 0.000702651 
0.00083724 4.87161e-05 -5.78436e-05 4.87161e-05 0.00122383 0.00020207 -5.78436e-05 0.00020207 0.000727213 
0.000850475 5.24439e-05 -4.78667e-05 5.24439e-05 0.00120875 0.000216029 -4.78667e-05 0.000216029 0.000756131 
0.000856053 5.57243e-05 -3.89476e-05 5.57243e-05 0.00119225 0.000230818 -3.89476e-05 0.000230818 0.000777594 
0.000858533 5.77933e-05 -2.91453e-05 5.77933e-05 0.00117661 0.000245475 -2.91453e-05 0.000245475 0.000794718 
0.000862623 5.84702e-05 -1.65229e-05 5.84702e-05 0.00116519 0.000260778 -1.65229e-05 0.000260778 0.000814502 
0.000870348 5.837e-05 -1.29791e-06 5.837e-05 0.00115824 0.000268745 -1.29791e-06 0.000268745 0.000837728 
0.000883552 6.25435e-05 6.86214e-06 6.25435e-05 0.0011463 0.00027065 6.86214e-06 0.00027065 0.000862279 
0.000891592 7.2837e-05 1.9408e-07 7.2837e-05 0.00112348 0.000261185 1.9408e-07 0.000261185 0.000868198 
0.000903896 8.09137e-05 -3.78199e-06 8.09137e-05 0.00110531 0.000257426 -3.78199e-06 0.000257426 0.000876309 
0.000911363 8.7988e-05 -7.62222e-06 8.7988e-05 0.00109128 0.000253764 -7.62222e-06 0.000253764 0.000877282 
0.000914666 9.35265e-05 -7.99341e-06 9.35265e-05 0.00108383 0.000254513 -7.99341e-06 0.000254513 0.000876679 
0.000917534 9.71003e-05 -3.78679e-06 9.71003e-05 0.00108397 0.000262928 -3.78679e-06 0.000262928 0.000878699 
0.000918487 0.0001001 9.59122e-07 0.0001001 0.00108203 0.00027217 9.59122e-07 0.00027217 0.00087594 
0.000915614 0.000101791 1.06726e-05 0.000101791 0.00108327 0.000286335 1.06726e-05 0.000286335 0.000873007 
0.000901445 0.000105017 9.97181e-06 0.000105017 0.00105694 0.000276873 9.97181e-06 0.000276873 0.000865329 
0.00088768 0.00010638 8.23189e-06 0.00010638 0.00102766 0.000263108 8.23189e-06 0.000263108 0.000854078 
0.000874964 0.000105583 8.01715e-06 0.000105583 0.00100188 0.000251131 8.01715e-06 0.000251131 0.000839879 
0.00086607 0.000104148 6.04313e-06 0.000104148 0.000973769 0.0002379 6.04313e-06 0.0002379 0.000820063 
0.000862174 0.000102129 -3.04488e-06 0.000102129 0.000940872 0.000215397 -3.04488e-06 0.000215397 0.00079869 
0.000866624 0.000103446 -1.56139e-05 0.000103446 0.000904995 0.000189427 -1.56139e-05 0.000189427 0.000770162 
0.000885661 0.000106452 -2.72303e-05 0.000106452 0.00086738 0.000157642 -2.72303e-05 0.000157642 0.000730264 
0.000675493 -1.24956e-05 -8.26755e-05 -1.24956e-05 0.000734307 -0.000201452 -8.26755e-05 -0.000201452 0.000881945 
0.000686274 -6.55373e-05 -5.31891e-05 -6.55373e-05 0.00070987 -0.000190547 -5.31891e-05 -0.000190547 0.000885855 
0.000699015 -0.000119309 -2.93506e-05 -0.000119309 0.00069132 -0.000178345 -2.93506e-05 -0.000178345 0.000891834 
0.000706362 -0.000172966 -7.32585e-06 -0.000172966 0.000681925 -0.000172729 -7.32585e-06 -0.000172729 0.000887405 
0.000721237 -0.000221996 1.91123e-05 -0.000221996 0.000684122 -0.000172119 1.91123e-05 -0.000172119 0.000857628 
0.000733626 -0.000267124 4.94719e-05 -0.000267124 0.000692064 -0.000176837 4.94719e-05 -0.000176837 0.000828498 
0.000738502 -0.000301093 6.99025e-05 -0.000301093 0.000702271 -0.000181572 6.99025e-05 -0.000181572 0.000793202 
0.000738271 -0.000328386 8.44152e-05 -0.000328386 0.000716558 -0.000187276 8.44152e-05 -0.000187276 0.000752376 
0.000736677 -0.000354282 0.000100964 -0.000354282 0.000734431 -0.000195985 0.000100964 -0.000195985 0.000711077 
0.000730084 -0.000372307 0.000112353 -0.000372307 0.000753116 -0.000204113 0.000112353 -0.000204113 0.000675049 
0.000719199 -0.000384283 0.000119013 -0.000384283 0.000773134 -0.000211101 0.000119013 -0.000211101 0.000644669 
0.000709529 -0.000398224 0.00012788 -0.000398224 0.000796961 -0.000221119 0.00012788 -0.000221119 0.000611625 
0.000698057 -0.000405995 0.00013291 -0.000405995 0.000822891 -0.000228337 0.00013291 -0.000228337 0.000572977 
0.000689561 -0.000402923 0.000127774 -0.000402923 0.000839493 -0.000222852 0.000127774 -0.000222852 0.000532262 
0.000685432 -0.000400718 0.000125667 -0.000400718 0.000852532 -0.000215956 0.000125667 -0.000215956 0.00048869 
0.000682578 -0.000398687 0.000126937 -0.000398687 0.000856765 -0.000201329 0.000126937 -0.000201329 0.000456423 
0.000684534 -0.000395727 0.00013018 -0.000395727 0.000856271 -0.000182413 0.00013018 -0.000182413 0.000427749 
0.000691308 -0.000392732 0.000136814 -0.000392732 0.00085399 -0.000161391 0.000136814 -0.000161391 0.000402971 
0.000700602 -0.000387612 0.000143845 -0.000387612 0.000852236 -0.000135658 0.000143845 -0.000135658 0.000390024 
0.000704332 -0.000385327 0.000146541 -0.000385327 0.000861245 -0.000110617 0.000146541 -0.000110617 0.000384865 
0.000698565 -0.000391771 0.000145822 -0.000391771 0.000872415 -8.82349e-05 0.000145822 -8.82349e-05 0.000380629 
0.000692751 -0.000403453 0.000143158 -0.000403453 0.000885428 -6.84305e-05 0.000143158 -6.84305e-05 0.000371379 
0.000691144 -0.000416839 0.000138714 -0.000416839 0.000901312 -4.9967e-05 0.000138714 -4.9967e-05 0.000359177 
0.00069524 -0.000432712 0.000126201 -0.000432712 0.000919969 -3.39153e-05 0.000126201 -3.39153e-05 0.000345023 
0.000706538 -0.000449384 0.000110891 -0.000449384 0.000940408 -1.80569e-05 0.000110891 -1.80569e-05 0.000327967 
0.000719368 -0.000466428 9.33668e-05 -0.000466428 0.000954699 -4.323e-06 9.33668e-05 -4.323e-06 0.000307535 
0.000739602 -0.000482823 7.74464e-05 -0.000482823 0.00093264 6.52734e-06 7.74464e-05 6.52734e-06 0.000304366 
0.000774518 -0.000500111 6.71492e-05 -0.000500111 0.000906566 1.89755e-05 6.71492e-05 1.89755e-05 0.000308118 
0.000824787 -0.00051336 6.74938e-05 -0.00051336 0.000869546 2.97534e-05 6.74938e-05 2.97534e-05 0.000333578 
0.000876012 -0.000518612 6.71532e-05 -0.000518612 0.000841708 3.94775e-05 6.71532e-05 3.94775e-05 0.000358878 
0.000936058 -0.000522557 6.84873e-05 -0.000522557 0.000816059 5.0059e-05 6.84873e-05 5.0059e-05 0.000387041 
0.000981996 -0.000520769 6.5616e-05 -0.000520769 0.000797308 5.6491e-05 6.5616e-05 5.6491e-05 0.00040817 
0.00100603 -0.000513614 5.00379e-05 -0.000513614 0.000785969 6.08075e-05 5.00379e-05 6.08075e-05 0.000399734 
0.00103057 -0.000507994 3.39845e-05 -0.000507994 0.000774642 6.60615e-05 3.39845e-05 6.60615e-05 0.000386449 
0.00105267 -0.000498968 2.40446e-05 -0.000498968 0.00077062 6.93964e-05 2.40446e-05 6.93964e-05 0.000390105 
0.00107621 -0.000488972 1.66387e-05 -0.000488972 0.000768946 7.28871e-05 1.66387e-05 7.28871e-05 0.000399551 
0.00110521 -0.000479329 1.12474e-05 -0.000479329 0.000769945 7.70687e-05 1.12474e-05 7.70687e-05 0.000411806 
0.00113976 -0.000470953 9.01392e-06 -0.000470953 0.000775741 8.08217e-05 9.01392e-06 8.08217e-05 0.000427366 
0.00116859 -0.000462926 6.3242e-06 -0.000462926 0.000780627 8.44837e-05 6.3242e-06 8.44837e-05 0.000438129 
0.00117995 -0.000457868 7.7947e-06 -0.000457868 0.000771977 8.71541e-05 7.7947e-06 8.71541e-05 0.000434237 
0.00118551 -0.000454246 1.02983e-05 -0.000454246 0.000757109 8.9973e-05 1.02983e-05 8.9973e-05 0.000424066 
0.00117671 -0.000447636 1.94232e-05 -0.000447636 0.000731161 9.01722e-05 1.94232e-05 9.01722e-05 0.000411087 
0.00115845 -0.000439929 3.25457e-05 -0.000439929 0.000693134 8.9368e-05 3.25457e-05 8.9368e-05 0.00039211 
0.00114586 -0.000430684 4.38359e-05 -0.000430684 0.000653014 8.90778e-05 4.38359e-05 8.90778e-05 0.000373728 
0.00115247 -0.000415161 5.07224e-05 -0.000415161 0.000620241 8.79409e-05 5.07224e-05 8.79409e-05 0.00036308 
0.00116569 -0.000396699 5.45979e-05 -0.000396699 0.000585724 8.67828e-05 5.45979e-05 8.67828e-05 0.000356685 
0.00119183 -0.000373919 5.42566e-05 -0.000373919 0.000556244 8.4488e-05 5.42566e-05 8.4488e-05 0.000357414 
0.00121952 -0.000349856 5.11924e-05 -0.000349856 0.000527578 8.20742e-05 5.11924e-05 8.20742e-05 0.000360602 
0.00125467 -0.000324365 4.25638e-05 -0.000324365 0.000500528 7.99433e-05 4.25638e-05 7.99433e-05 0.000354262 
0.00129164 -0.000298218 3.00222e-05 -0.000298218 0.000472893 7.80516e-05 3.00222e-05 7.80516e-05 0.000340754 
0.00133041 -0.0002719 1.59288e-05 -0.0002719 0.000442878 7.73814e-05 1.59288e-05 7.73814e-05 0.000322884 
0.00137089 -0.000245224 1.86231e-06 -0.000245224 0.000411561 7.76681e-05 1.86231e-06 7.76681e-05 0.000303319 
0.00141084 -0.000213822 -1.59001e-05 -0.000213822 0.000387533 7.91416e-05 -1.59001e-05 7.91416e-05 0.000289701 